/*--------------------------------*- C++ -*----------------------------------*\ 
| =========                 |                                                 | 
| \\      /  F ield         | OpenFOAM: The Open Source CFD Toolbox           | 
|  \\    /   O peration     | Version:  2.3.1                                 | 
|   \\  /    A nd           | Web:      www.OpenFOAM.org                      | 
|    \\/     M anipulation  |                                                 | 
\*---------------------------------------------------------------------------*/ 
FoamFile
{
    version     2.0;
    format      ascii;
    class       volScalarField;
    location    "0";
    object      omega;
}
// * * * * * * * * * * * * * * * * * * * * * * * * * * * * * * * * * * * * * //

dimensions      [0 0 -1 0 0 0 0];

internalField   uniform 5.33885;

boundaryField
{
    INLET
    {
        type			fixedValue;
        value           nonuniform List<scalar> 
3180 
 (
9749.81267161
1117.98630118
503.10184264
291.83191327
192.75970398
137.46658224
104.35343603
81.37593807
65.24478635
53.52773930
44.43435120
37.26705050
31.62756811
27.12490447
23.39466473
20.27447930
17.64109881
15.39990952
13.47761159
8853.14761784
1035.90964424
460.21205599
268.35863250
179.48440564
128.82028505
97.36946863
76.22676028
61.38007625
50.12381191
41.65680115
35.13724576
29.87088164
25.56724087
22.01231838
19.04623678
16.55070462
14.46142801
12.65608239
8142.29523586
970.69403099
432.31330793
253.28631905
168.93646807
122.52945065
92.27415687
72.75036441
58.30934200
47.82862683
39.88063231
33.56250344
28.47506468
24.34291430
21.02395059
18.23526188
15.87206875
13.85347166
12.09506139
7606.77855797
921.57518604
417.05623204
244.42313350
162.47533376
117.78830370
89.32319280
70.12972679
56.27161979
46.31987188
38.54139847
32.37511172
27.52546135
23.62584093
20.38369089
17.66304878
15.36007038
13.39469017
11.67161471
7234.12560039
887.27666458
406.40379180
238.23530352
158.77584434
114.47717055
87.26247163
68.29944353
55.08705467
45.26595383
37.60593065
31.63362943
26.96406903
23.12474121
19.93617115
17.26301603
15.00203052
13.07379395
11.37531337
7005.16100207
866.36175764
399.90132633
234.45716091
156.51815350
112.45599665
86.00405926
67.18186705
54.36362693
44.62232312
37.03450400
31.24941659
26.62104609
22.81847676
19.66260994
17.01840539
14.78302907
12.87742447
11.22250911
6905.46845799
857.16639689
397.04962528
232.80186151
155.52874798
111.63242502
85.45249384
66.71096478
54.04633728
44.33992666
36.78381506
31.08076409
26.47044686
22.68397449
19.54239325
16.91085695
14.68667447
12.80473160
11.16464192
6915.46340205
858.06582801
397.33352226
232.96465797
155.62479232
111.69222259
85.50598820
66.74517653
54.07685947
44.36702827
36.80774099
31.09681154
26.48466897
22.69656552
19.55355799
16.92073680
14.69542263
12.81100914
11.16971744
7016.34108761
867.24634277
400.18175143
234.61851495
156.61366556
112.54074049
86.05636389
67.22802888
54.39316205
44.64835577
37.05731618
31.26451880
26.63432365
22.83007180
19.67270824
17.02717865
14.79060425
12.88389385
11.22658285
7185.84332621
882.78431210
404.99958330
237.41632614
158.28660671
114.03721113
86.98799619
68.05523234
54.92854040
45.12455122
37.48000364
31.54865084
26.88787226
23.05633996
19.87472710
17.20768801
14.95209548
13.02856434
11.33302877
7401.26811430
902.52955605
411.13043163
240.97783335
160.41576761
115.94335897
88.17391713
69.10839260
55.61014246
45.73087760
38.01818936
31.91062505
27.21074183
23.34451215
20.13201499
17.43762455
15.15783684
13.21290475
11.50316331
7635.92560668
924.14227901
417.84688226
244.87879671
162.74594169
118.02909070
89.47250363
70.26162510
56.35646994
46.39485498
38.60740824
32.43311470
27.56430555
23.66003345
20.41376620
17.68942900
15.38315326
13.41479724
11.68951964
7863.54904215
944.97247686
424.30502891
248.63243920
164.99016635
120.03810222
90.72252661
71.37168966
57.09079948
47.03401295
39.17476588
32.93612109
27.91926899
23.96384592
20.68502431
17.93188246
15.60009542
13.60920052
11.86895103
8049.01003238
961.95814892
429.57977884
251.69568793
167.50809822
121.67665714
91.74259649
72.27750911
57.89093325
47.55551378
39.63772024
33.34657921
28.28311922
24.21174023
20.90638374
18.12971369
15.77711656
13.76782318
12.01536878
8156.18829302
971.84091658
432.64867297
253.47821727
169.10721189
122.62984033
92.33562482
72.80424959
58.35607240
47.85875924
39.90675337
33.58514590
28.49461090
24.35581590
21.03505307
18.24470893
15.88001179
13.86001852
12.10046742
8156.14913653
971.83978739
432.64847642
253.47814351
169.10716544
122.62981967
92.33561502
72.80424281
58.35606765
47.85875678
39.90675165
33.58514468
28.49461005
24.35581544
21.03505277
18.24470873
15.88001167
13.86001844
12.10046739
8048.89155165
961.95479757
429.57920695
251.69546909
167.50795900
121.67659523
91.74256712
72.27748901
57.89091917
47.55550651
39.63771514
33.34657562
28.28311669
24.21173890
20.90638283
18.12971311
15.77711620
13.76782298
12.01536871
7863.35570762
944.96690199
424.30406806
248.63207517
164.99001202
120.03800032
90.72247882
71.37165659
57.09077661
47.03400115
39.17475762
32.93611529
27.91926504
23.96384382
20.68502292
17.93188156
15.60009487
13.60920026
11.86895095
7637.06896237
924.13449619
417.84558070
244.87829875
162.74573289
118.02895298
89.47243765
70.26157998
56.35659855
46.39483870
38.60748068
32.43310684
27.56430148
23.66003062
20.41376438
17.68944467
15.38315257
13.41479691
11.68951957
7400.93246282
902.51978223
411.12890047
240.97991231
160.41551151
115.94318447
88.17422652
69.10862079
55.61026360
45.73096722
38.01817537
31.91061602
27.21073660
23.34450867
20.13201276
17.43762314
15.15783605
13.21290441
11.50316327
7185.43499076
882.77242148
404.99751350
237.41552604
158.28629510
114.03779388
86.98829307
68.05544477
54.92865756
45.12452844
37.47998905
31.54864112
26.88786589
23.05636321
19.87472395
17.20770295
14.95209471
13.02856403
11.33302877
7015.86119201
867.27181277
400.17931874
234.61766859
156.61329929
112.54049092
86.05663794
67.22795106
54.39312588
44.64832898
37.05729902
31.26450901
26.63431741
22.83009482
19.67272602
17.02717691
14.79060334
12.88389350
11.22658285
6916.29617755
858.08846636
397.33101223
232.96368763
155.62554364
111.69202396
85.50586356
66.74530635
54.07696047
44.36699755
36.80772131
31.09680030
26.48466181
22.69656111
19.55355458
16.92073481
14.69542159
12.81100881
11.16971769
6906.14688652
857.18794388
397.05306004
232.80330954
155.52832802
111.63222637
85.45271997
66.71109107
54.04642976
44.33999998
36.78379291
31.08079527
26.47043881
22.68396953
19.54238941
16.91085470
14.68667330
12.80473122
11.16464192
7005.80683825
866.34378023
399.89854439
234.45855803
156.51768803
112.45567943
86.00427989
67.18202482
54.36357517
44.62228479
37.03447944
31.24940490
26.62103715
22.81847126
19.66260675
17.01840373
14.78302842
12.87742395
11.22250941
7233.44967495
887.29265639
406.40036489
238.23412586
158.77637221
114.47752979
87.26230142
68.29958439
55.08700609
45.26591785
37.60590824
31.63361663
26.96409080
23.12473518
19.93616765
17.26301421
15.00202909
13.07379395
11.37531337
7607.31185506
921.59070313
417.05293023
244.42417553
162.47578411
117.78797429
89.32303140
70.12962772
56.27168533
46.31983290
38.54143941
32.37509343
27.52548335
23.62583440
20.38368710
17.66304681
15.36006884
13.39469875
11.67161471
8142.73569463
970.70684556
432.31597976
253.28735083
168.93713731
122.52975411
92.27398347
72.75025798
58.30926483
47.82868233
39.88060624
33.56248380
28.47505276
24.34290730
21.02396391
18.23525977
15.87207846
13.85347101
12.09506139
8853.58740759
1035.88790262
460.20648301
268.35999565
179.48357450
128.82053790
97.36968137
76.22686760
61.38000772
50.12376167
41.65684361
35.13727768
29.87090581
25.56726172
22.01231465
19.04625056
16.55070374
14.46142801
12.65608239
9750.45989285
1118.00514229
503.10820386
291.83746717
192.76065198
137.46809694
104.35373460
81.37617664
65.24491005
53.52782991
44.43441823
37.26710640
31.62759999
27.12493136
23.39468341
20.27449373
17.64111002
15.39990859
13.47761159
9749.70838428
1117.98964956
503.10104470
291.83353215
192.76047889
137.46668850
104.35331502
81.37607939
65.24481231
53.52770519
44.43435825
37.26703815
31.62755754
27.12491996
23.39467634
20.27447923
17.64110940
15.39990922
13.47761130
8853.52348934
1035.89559129
460.21032795
268.36110028
179.48486044
128.82000639
97.36956870
76.22676662
61.37995518
50.12376672
41.65682702
35.13726249
29.87089219
25.56724650
22.01230729
19.04624355
16.55070597
14.46142611
12.65608198
8142.65605180
970.70452988
432.31521613
253.28739952
168.93727021
122.52988046
92.27419159
72.75028817
58.30927910
47.82864903
39.88061208
33.56251572
28.47506335
24.34291529
21.02395233
18.23526597
15.87207371
13.85346536
12.09505802
7607.44494008
921.59738517
417.05641935
244.42311853
162.47545865
117.78835075
89.32320549
70.12980194
56.27169204
46.31987259
38.54142650
32.37509225
27.52547142
23.62584206
20.38369323
17.66304612
15.36006239
13.39469599
11.67160973
7233.70263619
887.28218642
406.40479338
238.23554340
158.77663434
114.47733911
87.26254341
68.29957873
55.08708201
45.26594184
37.60591443
31.63362431
26.96407023
23.12473571
19.93616762
17.26301840
15.00202967
13.07379100
11.37530872
7006.11378774
866.36007791
399.90260612
234.45857490
156.51835799
112.45603631
86.00423758
67.18203869
54.36361214
44.62233046
37.03450470
31.24940806
26.62104999
22.81847564
19.66260495
17.01840588
14.78303323
12.87741836
11.22250806
6906.50033636
857.19643860
397.05425559
232.80313136
155.52891520
111.63252889
85.45269613
66.71104906
54.04640629
44.33996332
36.78380339
31.08079655
26.47044662
22.68396670
19.54238327
16.91085069
14.68666774
12.80472925
11.16463937
6916.44794449
858.09995946
397.33240669
232.96508923
155.62549460
111.69225368
85.50606956
66.74528842
54.07694018
44.36703443
36.80771410
31.09679471
26.48464985
22.69656839
19.55355091
16.92073788
14.69541764
12.81100932
11.16971695
7016.47657430
867.26441974
400.18175143
234.61813879
156.61373961
112.54049595
86.05652809
67.22809519
54.39318176
44.64832804
37.05732190
31.26452829
26.63430717
22.83008293
19.67271328
17.02717646
14.79059715
12.88389239
11.22657835
7185.58301313
882.77955585
404.99979028
237.41705564
158.28630400
114.03756148
86.98810570
68.05531896
54.92859357
45.12457311
37.47999547
31.54863130
26.88786477
23.05634869
19.87472519
17.20768949
14.95208651
13.02856142
11.33302168
7400.75363706
902.52271437
411.13045924
240.97859917
160.41524173
115.94300073
88.17402759
69.10849203
55.61018441
45.73091893
38.01816449
31.91059859
27.21074083
23.34449749
20.13200949
17.43762281
15.15782563
13.21289910
11.50315793
7636.67416234
924.14219696
417.84326097
244.87857132
162.74621665
118.02928538
89.47241487
70.26157219
56.35648732
46.39478883
38.60743109
32.43307509
27.56428501
23.66003240
20.41375779
17.68943145
15.38314278
13.41479529
11.68951264
7863.14765851
944.94757864
424.30622563
248.63232521
164.98994381
120.03768569
90.72241378
71.37165172
57.09076124
47.03394578
39.17473386
32.93609725
27.91922857
23.96382736
20.68502175
17.93187154
15.60008612
13.60919185
11.86894760
8048.05211652
961.92888056
429.57890412
251.69556193
167.50818420
121.67643835
91.74234271
72.27744271
57.89090563
47.55548062
39.63764543
33.34654144
28.28309166
24.21171457
20.90636928
18.12969702
15.77710538
13.76781318
12.01535955
8155.75046002
971.79859036
432.64411971
253.47596203
169.10538063
122.62908962
92.33521616
72.80398276
58.35602769
47.85864559
39.90672738
33.58513309
28.49460059
24.35580774
21.03503527
18.24469038
15.88000241
13.86001449
12.10046321
8155.60677472
971.79440707
432.64411971
253.47596203
169.10519799
122.62908962
92.33521616
72.80398276
58.35602769
47.85863118
39.90672738
33.58513140
28.49460059
24.35580699
21.03503527
18.24468992
15.88000205
13.86001421
12.10046299
8048.05211652
961.92888056
429.57890412
251.69528135
167.50800205
121.67643835
91.74230222
72.27744271
57.89090563
47.55547164
39.63763022
33.34653639
28.28308782
24.21171232
20.90636754
18.12969567
15.77710432
13.76781234
12.01535887
7863.14765851
944.94757864
424.30622563
248.63232521
164.98994381
120.03768569
90.72236068
71.37165172
57.09076124
47.03393083
39.17472270
32.93608884
27.91922857
23.96382362
20.68502175
17.93186929
15.60008436
13.60919046
11.86894647
7636.67416234
924.14219696
417.84326097
244.87857132
162.74599452
118.02928538
89.47241487
70.26157219
56.35648732
46.39478883
38.60741550
32.43307509
27.56428186
23.66003240
20.41375375
17.68942830
15.38314031
13.41479335
11.68951106
7400.89339765
902.52678336
411.13116737
240.97887283
160.41536011
115.94308137
88.17406707
69.10852029
55.61019941
45.73090329
38.01817278
31.91060483
27.21073573
23.34450026
20.13200431
17.43762447
15.15782377
13.21289763
11.50315591
7185.85863796
882.78758033
405.00118677
237.41759531
158.28653746
114.03772050
86.98818356
68.05537469
54.92862315
45.12458406
37.48001181
31.54864063
26.88786127
23.05634326
19.87472098
17.20768621
14.95208779
13.02855839
11.33301922
7017.01852103
867.27625319
400.18381076
234.61919988
156.61408387
112.54080859
86.05664291
67.22817735
54.39322539
44.64832205
37.05733796
31.26452570
26.63431416
22.83007870
19.67271000
17.02717807
14.79059387
12.88388883
11.22657625
6916.97910380
858.11542310
397.33577049
232.96638912
155.62594443
111.69251951
85.50625709
66.74536622
54.07699717
44.36707659
36.80774558
31.09681267
26.48466013
22.69656264
19.55354848
16.92073440
14.69541367
12.81100600
11.16971453
6907.27871239
857.21909903
397.05819896
232.80465517
155.52957434
111.63284049
85.45291594
66.71116304
54.04647587
44.34001480
36.78384181
31.08079300
26.47046335
22.68397440
19.54238922
16.91084629
14.68666429
12.80472626
11.16463393
7006.99798434
866.38949568
399.90708536
234.46055300
156.51910666
112.45654618
86.00448723
67.18221732
54.36369341
44.62239058
37.03454958
31.24942939
26.62106626
22.81848564
19.66260202
17.01840208
14.78302907
12.87741415
11.22250504
7235.55664032
887.33616716
406.41038066
238.23770233
158.77756814
114.47797504
87.26285477
68.29977674
55.08718712
45.26601958
37.60596520
31.63365326
26.96408916
23.12473276
19.93616531
17.26301512
15.00203308
13.07378717
11.37530486
7609.56206547
921.63531711
417.06301976
244.42726445
162.47715198
117.78903364
89.32350639
70.13001722
56.27180630
46.31994772
38.54148256
32.37513442
27.52549276
23.62585844
20.38368963
17.66305313
15.36006568
13.39469164
11.67160479
8144.89943390
970.76984471
432.32214791
253.29007787
168.93900858
122.53060358
92.27454562
72.75071882
58.30946257
47.82880920
39.88067278
33.56255630
28.47509410
24.34291355
21.02396276
18.23526217
15.87206861
13.85346050
12.09505272
8855.87784606
1035.96413613
460.22947211
268.36551115
179.48652688
128.82130174
97.37046780
76.22719852
61.38026815
50.12388385
41.65688523
35.13730628
29.87092536
25.56726899
22.01232240
19.04623745
16.55070124
14.46142159
12.65607701
9750.43839563
1118.01090218
503.10637985
291.83579859
192.76140660
137.46721835
104.35360725
81.37625609
65.24475887
53.52777231
44.43439964
37.26706903
31.62757516
27.12490511
23.39466492
20.27448561
17.64110129
15.39990094
13.47760479
12.16692480
11.37132453
10.88465492
10.52277112
10.25794857
10.08151679
9.98385117
9.95453116
9.98229672
10.05493597
10.15897345
10.27931777
10.39885408
10.49831220
10.55681257
10.55681256
10.49831217
10.39885407
10.27931780
10.15897352
10.05493608
9.98229672
9.95452577
9.98385117
10.08151710
10.25794891
10.52277112
10.88465492
11.37132453
12.16692480
11.37132582
10.70971709
10.17210910
9.75694485
9.47333336
9.26240640
9.11756870
9.03149587
8.99609222
9.00240992
9.04044355
9.09888447
9.16485719
9.22380100
9.25993567
9.25993566
9.22380098
9.16485718
9.09888449
9.04044362
9.00241002
8.99609242
9.03149587
9.11756870
9.26240667
9.47333336
9.75694517
10.17210910
10.70971709
11.37132582
10.88465553
10.17210697
9.60957503
9.17924514
8.82493200
8.57118012
8.39696703
8.27192483
8.19070062
8.14717960
8.13440778
8.14438278
8.16788671
8.19443919
8.21257779
8.21257778
8.19443916
8.16788670
8.14438281
8.13440784
8.14717969
8.19070062
8.27192503
8.39696725
8.57118012
8.82493232
9.17924549
9.60957503
10.17210697
10.88465553
10.52276950
9.75694488
9.17924810
8.67910695
8.33173683
8.04112105
7.80444949
7.64300352
7.52799865
7.44750542
7.39691867
7.37078527
7.36267345
7.36513918
7.36993108
7.36993107
7.36513916
7.36267344
7.37078529
7.39691872
7.44750542
7.52799880
7.64300370
7.80444972
8.04112130
8.33173683
8.67910724
9.17924810
9.75694488
10.52276950
10.25794616
9.47333339
8.82493185
8.33173721
7.91993527
7.59724526
7.34677780
7.13865933
6.97564218
6.86716994
6.78760064
6.73357906
6.70095284
6.68472656
6.67915254
6.67915253
6.68472654
6.70095284
6.73357908
6.78760069
6.86717007
6.97564232
7.13865952
7.34677801
7.59724549
7.91993556
8.33173721
8.82493225
9.47333381
10.25794616
10.08151294
9.26240529
8.57117838
8.04112050
7.59724593
7.24566378
6.94702913
6.72426829
6.53627335
6.38226327
6.27844225
6.20239829
6.15022356
6.11901352
6.10512650
6.10512649
6.11901350
6.15022355
6.20239831
6.27844230
6.38226340
6.53627350
6.72426846
6.94702932
7.24566378
7.59724618
8.04112082
8.57117838
9.26240529
10.08151294
9.98385014
9.11756786
8.39696605
7.80444851
7.34677785
6.94702902
6.63816880
6.36476271
6.16297741
5.99123985
5.84999107
5.75581732
5.68781958
5.64432543
5.62358330
5.62358531
5.64432541
5.68781958
5.75581734
5.84999112
5.99123985
6.16297755
6.36476286
6.63816900
6.94702924
7.34677812
7.80444885
8.39696605
9.11756786
9.98385014
9.95452689
9.03149309
8.27192217
7.64300351
7.13865867
6.72426767
6.36476132
6.08809224
5.84090093
5.65712332
5.50092891
5.37873765
5.29804928
5.24442615
5.21795064
5.21795064
5.24442613
5.29804927
5.37873767
5.50092897
5.65712343
5.84090093
6.08809241
6.36476150
6.72426767
7.13865895
7.64300351
8.27192217
9.03149309
9.95452689
9.98229385
8.99609220
8.19069700
7.52799685
6.97564125
6.53627203
6.16297690
5.84090066
5.59050671
5.37113573
5.20504690
5.06613102
4.96991653
4.90803946
4.87674833
4.87674832
4.90803944
4.96991652
5.06613104
5.20504695
5.37113584
5.59050685
5.84090066
6.16297709
6.53627227
6.97564150
7.52799562
8.19069700
8.99609220
9.98229385
10.05493191
9.00240700
8.14717948
7.44750406
6.86716858
6.38226132
5.99123975
5.65712218
5.37113508
5.14422163
4.95520284
4.80841757
4.69559692
4.62737909
4.59210046
4.59210046
4.62737907
4.69559691
4.80841759
4.95520289
5.14422175
5.37113521
5.65712235
5.99123995
6.38226157
6.86716883
7.44750438
8.14717987
9.00240700
10.05493191
10.15896956
9.04044108
8.13440668
7.39691853
6.78759994
6.27844108
5.84999010
5.50092871
5.20504650
4.95520182
4.75095483
4.59583869
4.47179498
4.39706245
4.35865505
4.35865504
4.39706243
4.47179497
4.59583871
4.75095488
4.95520193
5.20504664
5.50092888
5.84999031
6.27844130
6.78760020
7.39691885
8.13440707
9.04044108
10.15896956
10.27931241
9.09888242
8.14437947
7.37078302
6.73357782
6.20239744
5.75581609
5.37873716
5.06613067
4.80841739
4.59583806
4.42378615
4.29821968
4.21359688
4.17309176
4.17309176
4.21359686
4.29821967
4.42378617
4.59583815
4.80841751
5.06613082
5.37873731
5.75581628
6.20239766
6.73357810
7.37078302
8.14437947
9.09888242
10.27931241
10.39885121
9.16485272
8.16788466
7.36267060
6.70095211
6.15022274
5.68781783
5.29804855
4.96991543
4.69559611
4.47179454
4.29821967
4.16727305
4.07468511
4.03378598
4.03378597
4.07468508
4.16727304
4.29821970
4.47179464
4.69559621
4.96991556
5.29804871
5.68781802
6.15022297
6.70095238
7.36267093
8.16788466
9.16485272
10.39885121
10.49830751
9.22379977
8.19443610
7.36513828
6.68472332
6.11901116
5.64432418
5.24442554
4.90803925
4.62737807
4.39706183
4.21359677
4.07468473
3.98309237
3.94041627
3.94041626
3.98309234
4.07468472
4.21359679
4.39706183
4.62737807
4.90803939
5.24442570
5.64432418
6.11901140
6.68472360
7.36513862
8.19443610
9.22380028
10.49830751
10.55680707
9.25993326
8.21257666
7.36992780
6.67915154
6.10512462
5.62358300
5.21794919
4.87674743
4.59209956
4.35865432
4.17309161
4.03378570
3.94041626
3.89957531
3.89957531
3.94041624
4.03378569
4.17309163
4.35865432
4.59209968
4.87674743
5.21794936
5.62358320
6.10512462
6.67915182
7.36992814
8.21257707
9.25993326
10.55680707
10.55680690
9.25993295
8.21257639
7.36992755
6.67915130
6.10512451
5.62358278
5.21794908
4.87674723
4.59209946
4.35865412
4.17309141
4.03378550
3.94041607
3.89957531
3.89957531
3.94041605
4.03378549
4.17309143
4.35865412
4.59209958
4.87674737
5.21794925
5.62358298
6.10512451
6.67915159
7.36992789
8.21257680
9.25993295
10.55680690
10.49830700
9.22379931
8.19443569
7.36513824
6.68472297
6.11901083
5.64432386
5.24442523
4.90803895
4.62737747
4.39706154
4.21359621
4.07468447
3.98309201
3.94041598
3.94041597
3.98309198
4.07468446
4.21359623
4.39706154
4.62737747
4.90803909
5.24442539
5.64432406
6.11901107
6.68472325
7.36513824
8.19443569
9.22379982
10.49830700
10.39885036
9.16485195
8.16788398
7.36266997
6.70095181
6.15022219
5.68781678
5.29804804
4.96991494
4.69559564
4.47179398
4.29821859
4.16727254
4.07468423
4.03378548
4.03378547
4.07468421
4.16727253
4.29821862
4.47179408
4.69559574
4.96991507
5.29804820
5.68781697
6.15022243
6.70095181
7.36267031
8.16788398
9.16485195
10.39885036
10.27931004
9.09888029
8.14437852
7.37078216
6.73357702
6.20239668
5.75581537
5.37873647
5.06612911
4.80841664
4.59583735
4.42378549
4.29821891
4.21359622
4.17309105
4.17309104
4.21359620
4.29821890
4.42378551
4.59583744
4.80841676
5.06612926
5.37873663
5.75581556
6.20239668
6.73357729
7.37078216
8.14437852
9.09888029
10.27931004
10.15896804
9.04043971
8.13440547
7.39691743
6.78759893
6.27844013
5.84998798
5.50092771
5.20504555
4.95520093
4.75095381
4.59583683
4.47179395
4.39706156
4.35865318
4.35865317
4.39706154
4.47179394
4.59583685
4.75095387
4.95520104
5.20504569
5.50092788
5.84998820
6.27844013
6.78759791
7.39691776
8.13440587
9.04043971
10.15896804
10.05492947
9.00240534
8.14717802
7.44750274
6.86716615
6.38225998
5.99123725
5.65712102
5.37113399
5.14422042
4.95520061
4.80841635
4.69559477
4.62737682
4.59209930
4.59209929
4.62737680
4.69559476
4.80841637
4.95520067
5.14421934
5.37113412
5.65712118
5.99123746
6.38225998
6.86716641
7.44750274
8.14717840
9.00240534
10.05492947
9.98229167
8.99608783
8.19069529
7.52799378
6.97563845
6.53627050
6.16297407
5.84089920
5.59050528
5.37113311
5.20504548
5.06612950
4.96991385
4.90803807
4.87674691
4.87674690
4.90803805
4.96991385
5.06612953
5.20504553
5.37113322
5.59050528
5.84089935
6.16297407
6.53627074
6.97563869
7.52799408
8.19069529
8.99608783
9.98229167
9.95452382
9.03149086
8.27191986
7.64299974
7.13865678
6.72426573
6.36475976
6.08808886
5.84089926
5.65712167
5.50092715
5.37873608
5.29804765
5.24442447
5.21794895
5.21794894
5.24442445
5.29804764
5.37873610
5.50092721
5.65712167
5.84089939
6.08808903
6.36475994
6.72426596
7.13865706
7.64300003
8.27192022
9.03149086
9.95452131
9.98384731
9.11756536
8.39696135
7.80444617
7.34677577
6.94702528
6.63816479
6.36475909
6.16297356
5.99123781
5.84998677
5.75581542
5.68781568
5.64432344
5.62358129
5.62358128
5.64432342
5.68781567
5.75581544
5.84998682
5.99123781
6.16297370
6.36475925
6.63816499
6.94702550
7.34677604
7.80444651
8.39696170
9.11756536
9.98384731
10.08150928
9.26239976
8.57117565
8.04111794
7.59724142
7.24566114
6.94702486
6.72426603
6.53626857
6.38225826
6.27843785
6.20239602
6.15022123
6.11900878
6.10512411
6.10512410
6.11900876
6.15022122
6.20239604
6.27843790
6.38225839
6.53626857
6.72426620
6.94702504
7.24566138
7.59724168
8.04111794
8.57117599
9.26239976
10.08150928
10.25794274
9.47333039
8.82492546
8.33173447
7.91992943
7.59724271
7.34677511
7.13865650
6.97563724
6.86716481
6.78759798
6.73357633
6.70095006
6.68472092
6.67914971
6.67914970
6.68472090
6.70095005
6.73357635
6.78759803
6.86716493
6.97563738
7.13865650
7.34677511
7.59724294
7.91992943
8.33173447
8.82492546
9.47333039
10.25794274
10.52276581
9.75694165
9.17924127
8.67910403
8.33173375
8.04111781
7.80444609
7.64300060
7.52799258
7.44750215
7.39691544
7.37078198
7.36267011
7.36513580
7.36992428
7.36992427
7.36513578
7.36267009
7.37078199
7.39691549
7.44750228
7.52799273
7.64300077
7.80444632
8.04111806
8.33173375
8.67910403
9.17924127
9.75694165
10.52276581
10.88464765
10.17210282
9.60957142
9.17924134
8.82492403
8.57117675
8.39696002
8.27191756
8.19069311
8.14717573
8.13440384
8.14437475
8.16788264
8.19443508
8.21257367
8.21257365
8.19443506
8.16788263
8.14437477
8.13440389
8.14717581
8.19069311
8.27191776
8.39696023
8.57117675
8.82492403
9.17924168
9.60957142
10.17210282
10.88464765
11.37131430
10.70971273
10.17209995
9.75694089
9.47332922
9.26240209
9.11756399
9.03149127
8.99608750
9.00240509
9.04043863
9.09887946
9.16484708
9.22379591
9.25993056
9.25993055
9.22379589
9.16484707
9.09887950
9.04043870
9.00240519
8.99608770
9.03149127
9.11756424
9.26239807
9.47332922
9.75694121
10.17209995
10.70971273
11.37131430
12.16691273
11.37131823
10.88465017
10.52276617
10.25793828
10.08150614
9.98384568
9.95451987
9.98229095
10.05492419
10.15896746
10.27930565
10.39884796
10.49830604
10.55680023
10.55680021
10.49830601
10.39884794
10.27930568
10.15896754
10.05492430
9.98229095
9.95452012
9.98384568
10.08150645
10.25793862
10.52276617
10.88465017
11.37131823
12.16691273
9750.28036568
1118.00934075
503.10592362
291.83563292
192.76133900
137.46726178
104.35362787
81.37630016
65.24492682
53.52780030
44.43442038
37.26708454
31.62758755
27.12494288
23.39467634
20.27449444
17.64110940
15.39990922
13.47761130
8853.69162695
1035.90049335
460.21176606
268.35906449
179.48402721
128.82023038
97.36972434
76.22684531
61.38002828
50.12382035
41.65685669
35.13728973
29.87091286
25.56726512
22.01232162
19.04624188
16.55070496
14.46143223
12.65608198
8142.84673197
970.71008983
432.31676310
253.28628354
168.93765933
122.53005736
92.27403067
72.75037344
58.30935768
47.82869169
39.88064398
33.56250050
28.47505566
24.34291079
21.02396414
18.23526462
15.87207266
13.85347104
12.09505802
7607.66674873
921.58014338
417.05754643
244.42378672
162.47564780
117.78854819
89.32330234
70.12970627
56.27174169
46.31990940
38.54146104
32.37511830
27.52548653
23.62583972
20.38369142
17.66305596
15.36006901
13.39469514
11.67160973
7233.84090031
887.28622006
406.40611782
238.23605595
158.77685642
114.47749066
87.26243962
68.29950447
55.08705574
45.26598237
37.60594474
31.63364164
26.96408665
23.12473086
19.93616762
17.26301694
15.00203679
13.07379100
11.37530872
7006.16810997
866.36534394
399.90352398
234.45783311
156.51851203
112.45614148
86.00432489
67.18196214
54.36364544
44.62231042
37.03453815
31.24942291
26.62104673
22.81848690
19.66260302
17.01840588
14.78303323
12.87741836
11.22250806
6905.98141901
857.18133164
397.05476420
232.80358241
155.52911058
111.63267333
85.45279815
66.71101106
54.04644516
44.34000242
36.78383262
31.08079217
26.47044662
22.68397653
19.54239287
16.91085069
14.68666774
12.80472925
11.16463937
6916.46692193
858.08836172
397.33317734
232.96456928
155.62515722
111.69236805
85.50618784
66.74533036
54.07691168
44.36706778
36.80773903
31.09679471
26.48466417
22.69656576
19.55355091
16.92073788
14.69541764
12.81100932
11.16971695
7016.68549681
867.26656114
400.18281123
234.61854865
156.61391707
112.54069510
86.05662568
67.22804041
54.39321891
44.64831728
37.05731387
31.26452829
26.63431615
22.83008293
19.67271328
17.02718224
14.79060168
12.88389239
11.22657835
7185.71572396
882.78342200
404.99839379
237.41731606
158.28653350
114.03771789
86.98818234
68.05537385
54.92857877
45.12459472
37.48001979
31.54864519
26.88786477
23.05634869
19.87472519
17.20768949
14.95209164
13.02856142
11.33302168
7400.80976748
902.52841922
411.13145240
240.97898313
160.41540791
115.94311398
88.17408308
69.10853178
55.61022053
45.73091893
38.01818447
31.91061988
27.21074444
23.34450419
20.13200949
17.43762851
15.15782693
13.21290012
11.50315876
7636.39151072
924.14571261
417.84387303
244.87829460
162.74609694
118.02935518
89.47248901
70.26157219
56.35651551
46.39480970
38.60743109
32.43308683
27.56428866
23.66003763
20.41375779
17.68943145
15.38314409
13.41479826
11.68951264
7863.19285832
944.95304420
424.30645493
248.63269293
164.99010292
120.03768569
90.72241378
71.37168974
57.09080968
47.03395710
39.17473386
32.93609725
27.91923977
23.96383019
20.68502464
17.93187154
15.60008612
13.60919185
11.86894760
8048.16495537
961.92888056
429.57890412
251.69550240
167.50832773
121.67650351
91.74237463
72.27746556
57.89094319
47.55549200
39.63764543
33.34654784
28.28309651
24.21171457
20.90637148
18.12969873
15.77710538
13.76781318
12.01536040
8155.60677472
971.79968667
432.64431053
253.47624338
169.10538063
122.62908962
92.33521616
72.80399038
58.35605428
47.85864559
39.90673590
33.58513950
28.49460673
24.35581059
21.03503585
18.24469209
15.88000276
13.86001449
12.10046321
8155.71280959
971.79749406
432.64411971
253.47616963
169.10533274
122.62906788
92.33520551
72.80398276
58.35604322
47.85864260
39.90673366
33.58513782
28.49460545
24.35580984
21.03503690
18.24469164
15.88000205
13.86001421
12.10046299
8048.05211652
961.92559493
429.57833223
251.69556193
167.50818420
121.67643835
91.74231079
72.27744883
57.89092662
47.55548302
39.63764722
33.34654278
28.28309267
24.21171517
20.90636974
18.12969738
15.77710459
13.76781339
12.01535972
7863.14765851
944.95172752
424.30527431
248.63223654
164.99006452
120.03765951
90.72240094
71.37164253
57.09078212
47.03394215
39.17473115
32.93609520
27.91923339
23.96382645
20.68502104
17.93187099
15.60008436
13.60919046
11.86894647
7636.55344692
924.14631154
417.84397703
244.87833469
162.74611423
118.02936692
89.47242060
70.26154769
56.35651766
46.39480006
38.60742388
32.43306966
27.56428551
23.66003521
20.41375591
17.68942999
15.38314163
13.41479439
11.68951106
7401.03315824
902.53085234
411.13187550
240.97914649
160.41547850
115.94316200
88.17410656
69.10854855
55.61022942
45.73091439
38.01816109
31.91061731
27.21073934
23.34450303
20.13200645
17.43762210
15.15782377
13.21289763
11.50315674
7185.99645037
882.79159257
404.99981521
237.41786514
158.28665419
114.03780000
86.98822250
68.05540255
54.92859399
45.12460595
37.48001999
31.54864529
26.88786483
23.05634600
19.87472310
17.20768786
14.95208522