/*--------------------------------*- C++ -*----------------------------------*\ 
| =========                 |                                                 | 
| \\      /  F ield         | OpenFOAM: The Open Source CFD Toolbox           | 
|  \\    /   O peration     | Version:  2.3.1                                 | 
|   \\  /    A nd           | Web:      www.OpenFOAM.org                      | 
|    \\/     M anipulation  |                                                 | 
\*---------------------------------------------------------------------------*/ 
FoamFile
{
    version     2.0;
    format      ascii;
    class       volVectorField;
    object      U;
}
// * * * * * * * * * * * * * * * * * * * * * * * * * * * * * * * * * * * * * //

dimensions      [0 1 -1 0 0 0 0];

internalField   uniform (0 0 0);

boundaryField
{
    INLET
    {
        type			fixedValue;
        value           nonuniform List<vector> 
3180 
 (
(-0.06139938 0 0)
(-0.15476757 0 0)
(-0.21118477 0 0)
(-0.24530429 0 0)
(-0.26927541 0 0)
(-0.28812863 0 0)
(-0.30354448 0 0)
(-0.31717017 0 0)
(-0.32928918 0 0)
(-0.34026387 0 0)
(-0.35052490 0 0)
(-0.36019560 0 0)
(-0.36929349 0 0)
(-0.37789918 0 0)
(-0.38617118 0 0)
(-0.39414596 0 0)
(-0.40184956 0 0)
(-0.40929860 0 0)
(-0.41650048 0 0)
(-0.06449439 0 0)
(-0.16060070 0 0)
(-0.21676603 0 0)
(-0.25006054 0 0)
(-0.27335442 0 0)
(-0.29185152 0 0)
(-0.30731450 0 0)
(-0.32075818 0 0)
(-0.33273437 0 0)
(-0.34381273 0 0)
(-0.35401953 0 0)
(-0.36352478 0 0)
(-0.37257356 0 0)
(-0.38122924 0 0)
(-0.38954047 0 0)
(-0.39754368 0 0)
(-0.40525980 0 0)
(-0.41264561 0 0)
(-0.41980937 0 0)
(-0.06694804 0 0)
(-0.16523553 0 0)
(-0.22069584 0 0)
(-0.25340557 0 0)
(-0.27659542 0 0)
(-0.29468845 0 0)
(-0.31017571 0 0)
(-0.32339487 0 0)
(-0.33547177 0 0)
(-0.34640511 0 0)
(-0.35651847 0 0)
(-0.36608234 0 0)
(-0.37517982 0 0)
(-0.38385995 0 0)
(-0.39207267 0 0)
(-0.39999319 0 0)
(-0.40764152 0 0)
(-0.41502776 0 0)
(-0.42224999 0 0)
(-0.06879649 0 0)
(-0.16872638 0 0)
(-0.22318640 0 0)
(-0.25562414 0 0)
(-0.27877870 0 0)
(-0.29682653 0 0)
(-0.31206963 0 0)
(-0.32538251 0 0)
(-0.33740316 0 0)
(-0.34823636 0 0)
(-0.35840268 0 0)
(-0.36801080 0 0)
(-0.37704284 0 0)
(-0.38560772 0 0)
(-0.39384384 0 0)
(-0.40178098 0 0)
(-0.40943842 0 0)
(-0.41682539 0 0)
(-0.42409211 0 0)
(-0.07008277 0 0)
(-0.17116395 0 0)
(-0.22492530 0 0)
(-0.25717303 0 0)
(-0.28016181 0 0)
(-0.29831973 0 0)
(-0.31339220 0 0)
(-0.32677070 0 0)
(-0.33863816 0 0)
(-0.34951555 0 0)
(-0.35971881 0 0)
(-0.36928217 0 0)
(-0.37824302 0 0)
(-0.38682909 0 0)
(-0.39508183 0 0)
(-0.40303082 0 0)
(-0.41069499 0 0)
(-0.41808276 0 0)
(-0.42538112 0 0)
(-0.07087309 0 0)
(-0.17265036 0 0)
(-0.22598676 0 0)
(-0.25811875 0 0)
(-0.28100589 0 0)
(-0.29923120 0 0)
(-0.31419985 0 0)
(-0.32761833 0 0)
(-0.33939239 0 0)
(-0.35029675 0 0)
(-0.36052277 0 0)
(-0.36999957 0 0)
(-0.37897635 0 0)
(-0.38757557 0 0)
(-0.39583859 0 0)
(-0.40379506 0 0)
(-0.41146359 0 0)
(-0.41885219 0 0)
(-0.42607913 0 0)
(-0.07121720 0 0)
(-0.17330387 0 0)
(-0.22645227 0 0)
(-0.25853309 0 0)
(-0.28137579 0 0)
(-0.29961521 0 0)
(-0.31455384 0 0)
(-0.32798215 0 0)
(-0.33972319 0 0)
(-0.35063951 0 0)
(-0.36087547 0 0)
(-0.37031448 0 0)
(-0.37929831 0 0)
(-0.38790340 0 0)
(-0.39617115 0 0)
(-0.40413108 0 0)
(-0.41180176 0 0)
(-0.41916270 0 0)
(-0.42635657 0 0)
(-0.07118270 0 0)
(-0.17323994 0 0)
(-0.22640592 0 0)
(-0.25849234 0 0)
(-0.28133989 0 0)
(-0.29958293 0 0)
(-0.31451951 0 0)
(-0.32795165 0 0)
(-0.33969137 0 0)
(-0.35060661 0 0)
(-0.36084181 0 0)
(-0.37028451 0 0)
(-0.37926791 0 0)
(-0.38787271 0 0)
(-0.39614026 0 0)
(-0.40410021 0 0)
(-0.41177105 0 0)
(-0.41913539 0 0)
(-0.42633224 0 0)
(-0.07083450 0 0)
(-0.17258749 0 0)
(-0.22594098 0 0)
(-0.25807836 0 0)
(-0.28097018 0 0)
(-0.29919299 0 0)
(-0.31416628 0 0)
(-0.32758332 0 0)
(-0.33936160 0 0)
(-0.35026515 0 0)
(-0.36049068 0 0)
(-0.36997137 0 0)
(-0.37894797 0 0)
(-0.38754730 0 0)
(-0.39581065 0 0)
(-0.40376765 0 0)
(-0.41143701 0 0)
(-0.41882684 0 0)
(-0.42605959 0 0)
(-0.07024943 0 0)
(-0.17148322 0 0)
(-0.22515452 0 0)
(-0.25737804 0 0)
(-0.28034472 0 0)
(-0.29851813 0 0)
(-0.31356836 0 0)
(-0.32695592 0 0)
(-0.33880343 0 0)
(-0.34968717 0 0)
(-0.35989599 0 0)
(-0.36944084 0 0)
(-0.37840592 0 0)
(-0.38699581 0 0)
(-0.39525180 0 0)
(-0.40320368 0 0)
(-0.41087024 0 0)
(-0.41825998 0 0)
(-0.42556507 0 0)
(-0.06950585 0 0)
(-0.17007994 0 0)
(-0.22415372 0 0)
(-0.25648654 0 0)
(-0.27954870 0 0)
(-0.29765853 0 0)
(-0.31280724 0 0)
(-0.32615715 0 0)
(-0.33809280 0 0)
(-0.34895125 0 0)
(-0.35913880 0 0)
(-0.36876517 0 0)
(-0.37771567 0 0)
(-0.38629342 0 0)
(-0.39454006 0 0)
(-0.40248528 0 0)
(-0.41014818 0 0)
(-0.41753768 0 0)
(-0.42482493 0 0)
(-0.06869588 0 0)
(-0.16854393 0 0)
(-0.22305733 0 0)
(-0.25551008 0 0)
(-0.27867753 0 0)
(-0.29671794 0 0)
(-0.31197381 0 0)
(-0.32528247 0 0)
(-0.33731470 0 0)
(-0.34814535 0 0)
(-0.35830981 0 0)
(-0.36791659 0 0)
(-0.37695980 0 0)
(-0.38552438 0 0)
(-0.39376064 0 0)
(-0.40169856 0 0)
(-0.40935741 0 0)
(-0.41674661 0 0)
(-0.42401422 0 0)
(-0.06791019 0 0)
(-0.16706355 0 0)
(-0.22200311 0 0)
(-0.25457050 0 0)
(-0.27783849 0 0)
(-0.29581195 0 0)
(-0.31117154 0 0)
(-0.32444054 0 0)
(-0.33655804 0 0)
(-0.34736957 0 0)
(-0.35751157 0 0)
(-0.36709965 0 0)
(-0.37621760 0 0)
(-0.38478388 0 0)
(-0.39301026 0 0)
(-0.40094105 0 0)
(-0.40859604 0 0)
(-0.41598488 0 0)
(-0.42323364 0 0)
(-0.06727004 0 0)
(-0.16585639 0 0)
(-0.22114206 0 0)
(-0.25380373 0 0)
(-0.27703430 0 0)
(-0.29507303 0 0)
(-0.31051686 0 0)
(-0.32375351 0 0)
(-0.33584476 0 0)
(-0.34673660 0 0)
(-0.35686023 0 0)
(-0.36643302 0 0)
(-0.37553822 0 0)
(-0.38417967 0 0)
(-0.39239790 0 0)
(-0.40032296 0 0)
(-0.40797477 0 0)
(-0.41536335 0 0)
(-0.42259668 0 0)
(-0.06690009 0 0)
(-0.16515403 0 0)
(-0.22064109 0 0)
(-0.25335754 0 0)
(-0.27654295 0 0)
(-0.29464318 0 0)
(-0.31013626 0 0)
(-0.32335401 0 0)
(-0.33543011 0 0)
(-0.34636854 0 0)
(-0.35648172 0 0)
(-0.36604556 0 0)
(-0.37514333 0 0)
(-0.38382851 0 0)
(-0.39204196 0 0)
(-0.39996368 0 0)
(-0.40761365 0 0)
(-0.41500210 0 0)
(-0.42222647 0 0)
(-0.06690022 0 0)
(-0.16515411 0 0)
(-0.22064113 0 0)
(-0.25335756 0 0)
(-0.27654297 0 0)
(-0.29464319 0 0)
(-0.31013627 0 0)
(-0.32335401 0 0)
(-0.33543012 0 0)
(-0.34636854 0 0)
(-0.35648172 0 0)
(-0.36604557 0 0)
(-0.37514333 0 0)
(-0.38382851 0 0)
(-0.39204196 0 0)
(-0.39996368 0 0)
(-0.40761365 0 0)
(-0.41500211 0 0)
(-0.42222647 0 0)
(-0.06727045 0 0)
(-0.16585662 0 0)
(-0.22114215 0 0)
(-0.25380378 0 0)
(-0.27703434 0 0)
(-0.29507305 0 0)
(-0.31051688 0 0)
(-0.32375353 0 0)
(-0.33584477 0 0)
(-0.34673661 0 0)
(-0.35686024 0 0)
(-0.36643303 0 0)
(-0.37553823 0 0)
(-0.38417968 0 0)
(-0.39239791 0 0)
(-0.40032296 0 0)
(-0.40797477 0 0)
(-0.41536335 0 0)
(-0.42259668 0 0)
(-0.06791086 0 0)
(-0.16706394 0 0)
(-0.22200326 0 0)
(-0.25457059 0 0)
(-0.27783855 0 0)
(-0.29581200 0 0)
(-0.31117157 0 0)
(-0.32444056 0 0)
(-0.33655806 0 0)
(-0.34736959 0 0)
(-0.35751159 0 0)
(-0.36709966 0 0)
(-0.37621761 0 0)
(-0.38478389 0 0)
(-0.39301026 0 0)
(-0.40094106 0 0)
(-0.40859604 0 0)
(-0.41598488 0 0)
(-0.42323364 0 0)
(-0.06869193 0 0)
(-0.16854449 0 0)
(-0.22305754 0 0)
(-0.25551021 0 0)
(-0.27867761 0 0)
(-0.29671801 0 0)
(-0.31197385 0 0)
(-0.32528251 0 0)
(-0.33731457 0 0)
(-0.34814537 0 0)
(-0.35830970 0 0)
(-0.36791661 0 0)
(-0.37695981 0 0)
(-0.38552439 0 0)
(-0.39376065 0 0)
(-0.40169851 0 0)
(-0.40935741 0 0)
(-0.41674661 0 0)
(-0.42401422 0 0)
(-0.06950701 0 0)
(-0.17008063 0 0)
(-0.22415397 0 0)
(-0.25648602 0 0)
(-0.27954880 0 0)
(-0.29765861 0 0)
(-0.31280704 0 0)
(-0.32615697 0 0)
(-0.33809268 0 0)
(-0.34895114 0 0)
(-0.35913882 0 0)
(-0.36876519 0 0)
(-0.37771568 0 0)
(-0.38629343 0 0)
(-0.39454007 0 0)
(-0.40248529 0 0)
(-0.41014818 0 0)
(-0.41753768 0 0)
(-0.42482493 0 0)
(-0.07025084 0 0)
(-0.17148406 0 0)
(-0.22515486 0 0)
(-0.25737824 0 0)
(-0.28034484 0 0)
(-0.29851787 0 0)
(-0.31356817 0 0)
(-0.32695576 0 0)
(-0.33880331 0 0)
(-0.34968720 0 0)
(-0.35989601 0 0)
(-0.36944086 0 0)
(-0.37840593 0 0)
(-0.38699575 0 0)
(-0.39525181 0 0)
(-0.40320363 0 0)
(-0.41087024 0 0)
(-0.41825998 0 0)
(-0.42556507 0 0)
(-0.07083616 0 0)
(-0.17258568 0 0)
(-0.22594138 0 0)
(-0.25807857 0 0)
(-0.28097032 0 0)
(-0.29919310 0 0)
(-0.31416610 0 0)
(-0.32758338 0 0)
(-0.33936164 0 0)
(-0.35026519 0 0)
(-0.36049070 0 0)
(-0.36997139 0 0)
(-0.37894798 0 0)
(-0.38754725 0 0)
(-0.39581060 0 0)
(-0.40376766 0 0)
(-0.41143701 0 0)
(-0.41882684 0 0)
(-0.42605959 0 0)
(-0.07117983 0 0)
(-0.17323833 0 0)
(-0.22640633 0 0)
(-0.25849259 0 0)
(-0.28133960 0 0)
(-0.29958303 0 0)
(-0.31451959 0 0)
(-0.32795154 0 0)
(-0.33969127 0 0)
(-0.35060665 0 0)
(-0.36084184 0 0)
(-0.37028453 0 0)
(-0.37926792 0 0)
(-0.38787272 0 0)
(-0.39614027 0 0)
(-0.40410022 0 0)
(-0.41177106 0 0)
(-0.41913540 0 0)
(-0.42633224 0 0)
(-0.07121486 0 0)
(-0.17330233 0 0)
(-0.22645170 0 0)
(-0.25853273 0 0)
(-0.28137595 0 0)
(-0.29961531 0 0)
(-0.31455369 0 0)
(-0.32798204 0 0)
(-0.33972310 0 0)
(-0.35063942 0 0)
(-0.36087550 0 0)
(-0.37031442 0 0)
(-0.37929833 0 0)
(-0.38790341 0 0)
(-0.39617116 0 0)
(-0.40413109 0 0)
(-0.41180176 0 0)
(-0.41916271 0 0)
(-0.42635657 0 0)
(-0.07087086 0 0)
(-0.17265164 0 0)
(-0.22598721 0 0)
(-0.25811840 0 0)
(-0.28100606 0 0)
(-0.29923134 0 0)
(-0.31419970 0 0)
(-0.32761821 0 0)
(-0.33939245 0 0)
(-0.35029680 0 0)
(-0.36052281 0 0)
(-0.36999959 0 0)
(-0.37897637 0 0)
(-0.38757558 0 0)
(-0.39583860 0 0)
(-0.40379507 0 0)
(-0.41146359 0 0)
(-0.41885219 0 0)
(-0.42607912 0 0)
(-0.07008511 0 0)
(-0.17116281 0 0)
(-0.22492585 0 0)
(-0.25717333 0 0)
(-0.28016162 0 0)
(-0.29831957 0 0)
(-0.31339231 0 0)
(-0.32677059 0 0)
(-0.33863821 0 0)
(-0.34951559 0 0)
(-0.35971885 0 0)
(-0.36928219 0 0)
(-0.37824297 0 0)
(-0.38682910 0 0)
(-0.39508184 0 0)
(-0.40303082 0 0)
(-0.41069500 0 0)
(-0.41808276 0 0)
(-0.42538112 0 0)
(-0.06879465 0 0)
(-0.16872527 0 0)
(-0.22318694 0 0)
(-0.25562388 0 0)
(-0.27877853 0 0)
(-0.29682668 0 0)
(-0.31206974 0 0)
(-0.32538259 0 0)
(-0.33740309 0 0)
(-0.34823641 0 0)
(-0.35840262 0 0)
(-0.36801083 0 0)
(-0.37704280 0 0)
(-0.38560774 0 0)
(-0.39384385 0 0)
(-0.40178099 0 0)
(-0.40943843 0 0)
(-0.41682536 0 0)
(-0.42409211 0 0)
(-0.06694652 0 0)
(-0.16523462 0 0)
(-0.22069540 0 0)
(-0.25340532 0 0)
(-0.27659521 0 0)
(-0.29468831 0 0)
(-0.31017582 0 0)
(-0.32339496 0 0)
(-0.33547184 0 0)
(-0.34640505 0 0)
(-0.35651851 0 0)
(-0.36608237 0 0)
(-0.37517985 0 0)
(-0.38385997 0 0)
(-0.39207264 0 0)
(-0.39999320 0 0)
(-0.40764149 0 0)
(-0.41502776 0 0)
(-0.42224999 0 0)
(-0.06449288 0 0)
(-0.16060225 0 0)
(-0.21676676 0 0)
(-0.25006026 0 0)
(-0.27335468 0 0)
(-0.29185140 0 0)
(-0.30731438 0 0)
(-0.32075810 0 0)
(-0.33273443 0 0)
(-0.34381278 0 0)
(-0.35401947 0 0)
(-0.36352473 0 0)
(-0.37257352 0 0)
(-0.38122919 0 0)
(-0.38954048 0 0)
(-0.39754364 0 0)
(-0.40525980 0 0)
(-0.41264561 0 0)
(-0.41980937 0 0)
(-0.06139714 0 0)
(-0.15476623 0 0)
(-0.21118394 0 0)
(-0.24530317 0 0)
(-0.26927512 0 0)
(-0.28812806 0 0)
(-0.30354432 0 0)
(-0.31717001 0 0)
(-0.32928907 0 0)
(-0.34026378 0 0)
(-0.35052482 0 0)
(-0.36019552 0 0)
(-0.36929343 0 0)
(-0.37789912 0 0)
(-0.38617114 0 0)
(-0.39414592 0 0)
(-0.40184952 0 0)
(-0.40929861 0 0)
(-0.41650048 0 0)
(-0.06139974 0 0)
(-0.15476733 0 0)
(-0.21118487 0 0)
(-0.24530396 0 0)
(-0.26927517 0 0)
(-0.28812859 0 0)
(-0.30354455 0 0)
(-0.31717007 0 0)
(-0.32928915 0 0)
(-0.34026391 0 0)
(-0.35052489 0 0)
(-0.36019561 0 0)
(-0.36929351 0 0)
(-0.37789914 0 0)
(-0.38617116 0 0)
(-0.39414596 0 0)
(-0.40184953 0 0)
(-0.40929860 0 0)
(-0.41650049 0 0)
(-0.06449310 0 0)
(-0.16060170 0 0)
(-0.21676626 0 0)
(-0.25006004 0 0)
(-0.27335428 0 0)
(-0.29185164 0 0)
(-0.30731444 0 0)
(-0.32075818 0 0)
(-0.33273448 0 0)
(-0.34381278 0 0)
(-0.35401949 0 0)
(-0.36352475 0 0)
(-0.37257354 0 0)
(-0.38122922 0 0)
(-0.38954050 0 0)
(-0.39754366 0 0)
(-0.40525980 0 0)
(-0.41264562 0 0)
(-0.41980938 0 0)
(-0.06694680 0 0)
(-0.16523479 0 0)
(-0.22069553 0 0)
(-0.25340530 0 0)
(-0.27659517 0 0)
(-0.29468825 0 0)
(-0.31017569 0 0)
(-0.32339493 0 0)
(-0.33547183 0 0)
(-0.34640509 0 0)
(-0.35651850 0 0)
(-0.36608232 0 0)
(-0.37517983 0 0)
(-0.38385995 0 0)
(-0.39207267 0 0)
(-0.39999318 0 0)
(-0.40764151 0 0)
(-0.41502778 0 0)
(-0.42225000 0 0)
(-0.06879419 0 0)
(-0.16872480 0 0)
(-0.22318637 0 0)
(-0.25562415 0 0)
(-0.27877865 0 0)
(-0.29682651 0 0)
(-0.31206962 0 0)
(-0.32538245 0 0)
(-0.33740309 0 0)
(-0.34823636 0 0)
(-0.35840264 0 0)
(-0.36801083 0 0)
(-0.37704282 0 0)
(-0.38560772 0 0)
(-0.39384384 0 0)
(-0.40178099 0 0)
(-0.40943845 0 0)
(-0.41682537 0 0)
(-0.42409214 0 0)
(-0.07008423 0 0)
(-0.17116356 0 0)
(-0.22492513 0 0)
(-0.25717297 0 0)
(-0.28016152 0 0)
(-0.29831965 0 0)
(-0.31339215 0 0)
(-0.32677060 0 0)
(-0.33863814 0 0)
(-0.34951556 0 0)
(-0.35971884 0 0)
(-0.36928218 0 0)
(-0.37824302 0 0)
(-0.38682910 0 0)
(-0.39508184 0 0)
(-0.40303081 0 0)
(-0.41069499 0 0)
(-0.41808277 0 0)
(-0.42538114 0 0)
(-0.07086980 0 0)
(-0.17265048 0 0)
(-0.22598655 0 0)
(-0.25811840 0 0)
(-0.28100581 0 0)
(-0.29923118 0 0)
(-0.31419973 0 0)
(-0.32761820 0 0)
(-0.33939241 0 0)
(-0.35029674 0 0)
(-0.36052277 0 0)
(-0.36999958 0 0)
(-0.37897634 0 0)
(-0.38757557 0 0)
(-0.39583860 0 0)
(-0.40379506 0 0)
(-0.41146358 0 0)
(-0.41885221 0 0)
(-0.42607913 0 0)
(-0.07121364 0 0)
(-0.17330173 0 0)
(-0.22645151 0 0)
(-0.25853278 0 0)
(-0.28137573 0 0)
(-0.29961515 0 0)
(-0.31455371 0 0)
(-0.32798208 0 0)
(-0.33972312 0 0)
(-0.35063946 0 0)
(-0.36087549 0 0)
(-0.37031442 0 0)
(-0.37929831 0 0)
(-0.38790342 0 0)
(-0.39617117 0 0)
(-0.40413110 0 0)
(-0.41180178 0 0)
(-0.41916271 0 0)
(-0.42635659 0 0)
(-0.07117930 0 0)
(-0.17323752 0 0)
(-0.22640610 0 0)
(-0.25849224 0 0)
(-0.28133962 0 0)
(-0.29958291 0 0)
(-0.31451946 0 0)
(-0.32795155 0 0)
(-0.33969129 0 0)
(-0.35060661 0 0)
(-0.36084185 0 0)
(-0.37028454 0 0)
(-0.37926795 0 0)
(-0.38787270 0 0)
(-0.39614028 0 0)
(-0.40410021 0 0)
(-0.41177107 0 0)
(-0.41913539 0 0)
(-0.42633224 0 0)
(-0.07083403 0 0)
(-0.17258621 0 0)
(-0.22594098 0 0)
(-0.25807846 0 0)
(-0.28097015 0 0)
(-0.29919310 0 0)
(-0.31416617 0 0)
(-0.32758327 0 0)
(-0.33936158 0 0)
(-0.35026519 0 0)
(-0.36049067 0 0)
(-0.36997135 0 0)
(-0.37894800 0 0)
(-0.38754728 0 0)
(-0.39581064 0 0)
(-0.40376766 0 0)
(-0.41143703 0 0)
(-0.41882684 0 0)
(-0.42605962 0 0)
(-0.07025033 0 0)
(-0.17148356 0 0)
(-0.22515448 0 0)
(-0.25737785 0 0)
(-0.28034484 0 0)
(-0.29851797 0 0)
(-0.31356829 0 0)
(-0.32695586 0 0)
(-0.33880337 0 0)
(-0.34968715 0 0)
(-0.35989600 0 0)
(-0.36944088 0 0)
(-0.37840593 0 0)
(-0.38699578 0 0)
(-0.39525181 0 0)
(-0.40320368 0 0)
(-0.41087027 0 0)
(-0.41825999 0 0)
(-0.42556510 0 0)
(-0.06950762 0 0)
(-0.17008042 0 0)
(-0.22415372 0 0)
(-0.25648635 0 0)
(-0.27954890 0 0)
(-0.29765869 0 0)
(-0.31280716 0 0)
(-0.32615707 0 0)
(-0.33809276 0 0)
(-0.34895120 0 0)
(-0.35913883 0 0)
(-0.36876522 0 0)
(-0.37771567 0 0)
(-0.38629346 0 0)
(-0.39454008 0 0)
(-0.40248529 0 0)
(-0.41014822 0 0)
(-0.41753770 0 0)
(-0.42482495 0 0)
(-0.06869330 0 0)
(-0.16854394 0 0)
(-0.22305792 0 0)
(-0.25551014 0 0)
(-0.27867742 0 0)
(-0.29671786 0 0)
(-0.31197386 0 0)
(-0.32528251 0 0)
(-0.33731468 0 0)
(-0.34814543 0 0)
(-0.35830977 0 0)
(-0.36791666 0 0)
(-0.37695984 0 0)
(-0.38552439 0 0)
(-0.39376067 0 0)
(-0.40169855 0 0)
(-0.40935745 0 0)
(-0.41674662 0 0)
(-0.42401425 0 0)
(-0.06791158 0 0)
(-0.16706532 0 0)
(-0.22200291 0 0)
(-0.25457053 0 0)
(-0.27783857 0 0)
(-0.29581214 0 0)
(-0.31117162 0 0)
(-0.32444057 0 0)
(-0.33655807 0 0)
(-0.34736965 0 0)
(-0.35751162 0 0)
(-0.36709969 0 0)
(-0.37621768 0 0)
(-0.38478393 0 0)
(-0.39301026 0 0)
(-0.40094109 0 0)
(-0.40859607 0 0)
(-0.41598492 0 0)
(-0.42323365 0 0)
(-0.06727334 0 0)
(-0.16585847 0 0)
(-0.22114220 0 0)
(-0.25380376 0 0)
(-0.27703428 0 0)
(-0.29507313 0 0)
(-0.31051703 0 0)
(-0.32375356 0 0)
(-0.33584479 0 0)
(-0.34673664 0 0)
(-0.35686034 0 0)
(-0.36643309 0 0)
(-0.37553827 0 0)
(-0.38417974 0 0)
(-0.39239794 0 0)
(-0.40032301 0 0)
(-0.40797481 0 0)
(-0.41536339 0 0)
(-0.42259672 0 0)
(-0.06690160 0 0)
(-0.16515703 0 0)
(-0.22064184 0 0)
(-0.25335810 0 0)
(-0.27654352 0 0)
(-0.29464351 0 0)
(-0.31013652 0 0)
(-0.32335421 0 0)
(-0.33543015 0 0)
(-0.34636868 0 0)
(-0.35648176 0 0)
(-0.36604559 0 0)
(-0.37514335 0 0)
(-0.38382853 0 0)
(-0.39204201 0 0)
(-0.39996374 0 0)
(-0.40761368 0 0)
(-0.41500212 0 0)
(-0.42222649 0 0)
(-0.06690210 0 0)
(-0.16515733 0 0)
(-0.22064184 0 0)
(-0.25335810 0 0)
(-0.27654357 0 0)
(-0.29464351 0 0)
(-0.31013652 0 0)
(-0.32335421 0 0)
(-0.33543015 0 0)
(-0.34636870 0 0)
(-0.35648176 0 0)
(-0.36604559 0 0)
(-0.37514335 0 0)
(-0.38382853 0 0)
(-0.39204201 0 0)
(-0.39996374 0 0)
(-0.40761368 0 0)
(-0.41500212 0 0)
(-0.42222649 0 0)
(-0.06727334 0 0)
(-0.16585847 0 0)
(-0.22114220 0 0)
(-0.25380383 0 0)
(-0.27703433 0 0)
(-0.29507313 0 0)
(-0.31051705 0 0)
(-0.32375356 0 0)
(-0.33584479 0 0)
(-0.34673665 0 0)
(-0.35686036 0 0)
(-0.36643309 0 0)
(-0.37553828 0 0)
(-0.38417974 0 0)
(-0.39239795 0 0)
(-0.40032302 0 0)
(-0.40797481 0 0)
(-0.41536339 0 0)
(-0.42259672 0 0)
(-0.06791158 0 0)
(-0.16706532 0 0)
(-0.22200291 0 0)
(-0.25457053 0 0)
(-0.27783857 0 0)
(-0.29581214 0 0)
(-0.31117165 0 0)
(-0.32444057 0 0)
(-0.33655807 0 0)
(-0.34736967 0 0)
(-0.35751164 0 0)
(-0.36709971 0 0)
(-0.37621768 0 0)
(-0.38478394 0 0)
(-0.39301026 0 0)
(-0.40094109 0 0)
(-0.40859607 0 0)
(-0.41598492 0 0)
(-0.42323366 0 0)
(-0.06869330 0 0)
(-0.16854394 0 0)
(-0.22305792 0 0)
(-0.25551014 0 0)
(-0.27867751 0 0)
(-0.29671786 0 0)
(-0.31197386 0 0)
(-0.32528251 0 0)
(-0.33731468 0 0)
(-0.34814543 0 0)
(-0.35830980 0 0)
(-0.36791666 0 0)
(-0.37695985 0 0)
(-0.38552439 0 0)
(-0.39376068 0 0)
(-0.40169856 0 0)
(-0.40935746 0 0)
(-0.41674662 0 0)
(-0.42401426 0 0)
(-0.06950714 0 0)
(-0.17008013 0 0)
(-0.22415360 0 0)
(-0.25648628 0 0)
(-0.27954885 0 0)
(-0.29765866 0 0)
(-0.31280714 0 0)
(-0.32615705 0 0)
(-0.33809275 0 0)
(-0.34895122 0 0)
(-0.35913882 0 0)
(-0.36876521 0 0)
(-0.37771568 0 0)
(-0.38629345 0 0)
(-0.39454009 0 0)
(-0.40248528 0 0)
(-0.41014822 0 0)
(-0.41753771 0 0)
(-0.42482496 0 0)
(-0.07024938 0 0)
(-0.17148299 0 0)
(-0.22515426 0 0)
(-0.25737772 0 0)
(-0.28034475 0 0)
(-0.29851790 0 0)
(-0.31356824 0 0)
(-0.32695581 0 0)
(-0.33880334 0 0)
(-0.34968713 0 0)
(-0.35989597 0 0)
(-0.36944086 0 0)
(-0.37840594 0 0)
(-0.38699580 0 0)
(-0.39525182 0 0)
(-0.40320369 0 0)
(-0.41087027 0 0)
(-0.41826000 0 0)
(-0.42556511 0 0)
(-0.07083216 0 0)
(-0.17258536 0 0)
(-0.22594064 0 0)
(-0.25807819 0 0)
(-0.28097002 0 0)
(-0.29919295 0 0)
(-0.31416610 0 0)
(-0.32758321 0 0)
(-0.33936153 0 0)
(-0.35026519 0 0)
(-0.36049065 0 0)
(-0.36997136 0 0)
(-0.37894799 0 0)
(-0.38754729 0 0)
(-0.39581065 0 0)
(-0.40376766 0 0)
(-0.41143704 0 0)
(-0.41882686 0 0)
(-0.42605963 0 0)
(-0.07117747 0 0)
(-0.17323642 0 0)
(-0.22640556 0 0)
(-0.25849191 0 0)
(-0.28133946 0 0)
(-0.29958277 0 0)
(-0.31451933 0 0)
(-0.32795148 0 0)
(-0.33969123 0 0)
(-0.35060656 0 0)
(-0.36084180 0 0)
(-0.37028451 0 0)
(-0.37926793 0 0)
(-0.38787271 0 0)
(-0.39614029 0 0)
(-0.40410022 0 0)
(-0.41177109 0 0)
(-0.41913541 0 0)
(-0.42633225 0 0)
(-0.07121095 0 0)
(-0.17330012 0 0)
(-0.22645087 0 0)
(-0.25853240 0 0)
(-0.28137548 0 0)
(-0.29961498 0 0)
(-0.31455357 0 0)
(-0.32798198 0 0)
(-0.33972305 0 0)
(-0.35063940 0 0)
(-0.36087544 0 0)
(-0.37031442 0 0)
(-0.37929828 0 0)
(-0.38790340 0 0)
(-0.39617116 0 0)
(-0.40413112 0 0)
(-0.41180179 0 0)
(-0.41916273 0 0)
(-0.42635661 0 0)
(-0.07086675 0 0)
(-0.17264839 0 0)
(-0.22598581 0 0)
(-0.25811790 0 0)
(-0.28100553 0 0)
(-0.29923095 0 0)
(-0.31419957 0 0)
(-0.32761806 0 0)
(-0.33939232 0 0)
(-0.35029667 0 0)
(-0.36052271 0 0)
(-0.36999954 0 0)
(-0.37897631 0 0)
(-0.38757554 0 0)
(-0.39583861 0 0)
(-0.40379507 0 0)
(-0.41146359 0 0)
(-0.41885223 0 0)
(-0.42607915 0 0)
(-0.07007783 0 0)
(-0.17115972 0 0)
(-0.22492422 0 0)
(-0.25717243 0 0)
(-0.28016117 0 0)
(-0.29831936 0 0)
(-0.31339195 0 0)
(-0.32677045 0 0)
(-0.33863803 0 0)
(-0.34951547 0 0)
(-0.35971877 0 0)
(-0.36928212 0 0)
(-0.37824298 0 0)
(-0.38682911 0 0)
(-0.39508184 0 0)
(-0.40303082 0 0)
(-0.41069498 0 0)
(-0.41808278 0 0)
(-0.42538115 0 0)
(-0.06878688 0 0)
(-0.16872210 0 0)
(-0.22318529 0 0)
(-0.25562311 0 0)
(-0.27877802 0 0)
(-0.29682620 0 0)
(-0.31206943 0 0)
(-0.32538229 0 0)
(-0.33740297 0 0)
(-0.34823627 0 0)
(-0.35840256 0 0)
(-0.36801076 0 0)
(-0.37704278 0 0)
(-0.38560768 0 0)
(-0.39384385 0 0)
(-0.40178097 0 0)
(-0.40943844 0 0)
(-0.41682539 0 0)
(-0.42409216 0 0)
(-0.06693906 0 0)
(-0.16523015 0 0)
(-0.22069440 0 0)
(-0.25340463 0 0)
(-0.27659464 0 0)
(-0.29468793 0 0)
(-0.31017546 0 0)
(-0.32339461 0 0)
(-0.33547166 0 0)
(-0.34640489 0 0)
(-0.35651841 0 0)
(-0.36608225 0 0)
(-0.37517977 0 0)
(-0.38385996 0 0)
(-0.39207264 0 0)
(-0.39999319 0 0)
(-0.40764152 0 0)
(-0.41502780 0 0)
(-0.42225003 0 0)
(-0.06448497 0 0)
(-0.16059683 0 0)
(-0.21676377 0 0)
(-0.25005914 0 0)
(-0.27335377 0 0)
(-0.29185106 0 0)
(-0.30731396 0 0)
(-0.32075785 0 0)
(-0.33273420 0 0)
(-0.34381265 0 0)
(-0.35401941 0 0)
(-0.36352468 0 0)
(-0.37257348 0 0)
(-0.38122918 0 0)
(-0.38954046 0 0)
(-0.39754367 0 0)
(-0.40525981 0 0)
(-0.41264564 0 0)
(-0.41980940 0 0)
(-0.06139722 0 0)
(-0.15476582 0 0)
(-0.21118418 0 0)
(-0.24530350 0 0)
(-0.26927489 0 0)
(-0.28812839 0 0)
(-0.30354439 0 0)
(-0.31716996 0 0)
(-0.32928920 0 0)
(-0.34026384 0 0)
(-0.35052484 0 0)
(-0.36019557 0 0)
(-0.36929347 0 0)
(-0.37789917 0 0)
(-0.38617118 0 0)
(-0.39414594 0 0)
(-0.40184955 0 0)
(-0.40929863 0 0)
(-0.41650051 0 0)
(-0.42193736 0 0)
(-0.42539847 0 0)
(-0.42769899 0 0)
(-0.42943406 0 0)
(-0.43070377 0 0)
(-0.43154968 0 0)
(-0.43201794 0 0)
(-0.43215852 0 0)
(-0.43202540 0 0)
(-0.43167712 0 0)
(-0.43117831 0 0)
(-0.43060131 0 0)
(-0.43002819 0 0)
(-0.42955133 0 0)
(-0.42927085 0 0)
(-0.42927085 0 0)
(-0.42955133 0 0)
(-0.43002819 0 0)
(-0.43060131 0 0)
(-0.43117831 0 0)
(-0.43167712 0 0)
(-0.43202540 0 0)
(-0.43215855 0 0)
(-0.43201794 0 0)
(-0.43154968 0 0)
(-0.43070377 0 0)
(-0.42943406 0 0)
(-0.42769899 0 0)
(-0.42539847 0 0)
(-0.42193736 0 0)
(-0.42539846 0 0)
(-0.42853774 0 0)
(-0.43111533 0 0)
(-0.43315373 0 0)
(-0.43464074 0 0)
(-0.43574665 0 0)
(-0.43650606 0 0)
(-0.43695735 0 0)
(-0.43714297 0 0)
(-0.43710985 0 0)
(-0.43691043 0 0)
(-0.43660402 0 0)
(-0.43625812 0 0)
(-0.43594907 0 0)
(-0.43575961 0 0)
(-0.43575961 0 0)
(-0.43594907 0 0)
(-0.43625812 0 0)
(-0.43660402 0 0)
(-0.43691043 0 0)
(-0.43710985 0 0)
(-0.43714297 0 0)
(-0.43695735 0 0)
(-0.43650606 0 0)
(-0.43574665 0 0)
(-0.43464074 0 0)
(-0.43315373 0 0)
(-0.43111533 0 0)
(-0.42853774 0 0)
(-0.42539846 0 0)
(-0.42769898 0 0)
(-0.43111534 0 0)
(-0.43392641 0 0)
(-0.43618268 0 0)
(-0.43804038 0 0)
(-0.43941849 0 0)
(-0.44040077 0 0)
(-0.44110581 0 0)
(-0.44156378 0 0)
(-0.44180917 0 0)
(-0.44188119 0 0)
(-0.44182494 0 0)
(-0.44169242 0 0)
(-0.44154271 0 0)
(-0.44144043 0 0)
(-0.44144043 0 0)
(-0.44154271 0 0)
(-0.44169242 0 0)
(-0.44182494 0 0)
(-0.44188119 0 0)
(-0.44180917 0 0)
(-0.44156378 0 0)
(-0.44110581 0 0)
(-0.44040077 0 0)
(-0.43941849 0 0)
(-0.43804038 0 0)
(-0.43618268 0 0)
(-0.43392641 0 0)
(-0.43111534 0 0)
(-0.42769898 0 0)
(-0.42943407 0 0)
(-0.43315373 0 0)
(-0.43618266 0 0)
(-0.43880996 0 0)
(-0.44076857 0 0)
(-0.44240717 0 0)
(-0.44374162 0 0)
(-0.44469041 0 0)
(-0.44537710 0 0)
(-0.44585773 0 0)
(-0.44615979 0 0)
(-0.44631583 0 0)
(-0.44636427 0 0)
(-0.44634954 0 0)
(-0.44632093 0 0)
(-0.44632093 0 0)
(-0.44634954 0 0)
(-0.44636427 0 0)
(-0.44631583 0 0)
(-0.44615979 0 0)
(-0.44585773 0 0)
(-0.44537710 0 0)
(-0.44469040 0 0)
(-0.44374162 0 0)
(-0.44240717 0 0)
(-0.44076857 0 0)
(-0.43880995 0 0)
(-0.43618266 0 0)
(-0.43315373 0 0)
(-0.42943407 0 0)
(-0.43070378 0 0)
(-0.43464074 0 0)
(-0.43804039 0 0)
(-0.44076856 0 0)
(-0.44309047 0 0)
(-0.44496363 0 0)
(-0.44645918 0 0)
(-0.44770186 0 0)
(-0.44868185 0 0)
(-0.44935945 0 0)
(-0.44985650 0 0)
(-0.45019395 0 0)
(-0.45039776 0 0)
(-0.45049912 0 0)
(-0.45053394 0 0)
(-0.45053394 0 0)
(-0.45049912 0 0)
(-0.45039776 0 0)
(-0.45019395 0 0)
(-0.44985650 0 0)
(-0.44935945 0 0)
(-0.44868185 0 0)
(-0.44770186 0 0)
(-0.44645918 0 0)
(-0.44496363 0 0)
(-0.44309046 0 0)
(-0.44076856 0 0)
(-0.43804038 0 0)
(-0.43464074 0 0)
(-0.43070378 0 0)
(-0.43154970 0 0)
(-0.43574666 0 0)
(-0.43941850 0 0)
(-0.44240718 0 0)
(-0.44496363 0 0)
(-0.44706294 0 0)
(-0.44886059 0 0)
(-0.45025211 0 0)
(-0.45142646 0 0)
(-0.45238852 0 0)
(-0.45305803 0 0)
(-0.45355022 0 0)
(-0.45388792 0 0)
(-0.45408993 0 0)
(-0.45417981 0 0)
(-0.45417981 0 0)
(-0.45408993 0 0)
(-0.45388792 0 0)
(-0.45355022 0 0)
(-0.45305803 0 0)
(-0.45238852 0 0)
(-0.45142646 0 0)
(-0.45025211 0 0)
(-0.44886059 0 0)
(-0.44706294 0 0)
(-0.44496362 0 0)
(-0.44240717 0 0)
(-0.43941850 0 0)
(-0.43574666 0 0)
(-0.43154970 0 0)
(-0.43201795 0 0)
(-0.43650606 0 0)
(-0.44040078 0 0)
(-0.44374163 0 0)
(-0.44645918 0 0)
(-0.44886059 0 0)
(-0.45078995 0 0)
(-0.45249932 0 0)
(-0.45380537 0 0)
(-0.45491694 0 0)
(-0.45583117 0 0)
(-0.45645713 0 0)
(-0.45690969 0 0)
(-0.45719916 0 0)
(-0.45733721 0 0)
(-0.45733719 0 0)
(-0.45719916 0 0)
(-0.45690969 0 0)
(-0.45645713 0 0)
(-0.45583117 0 0)
(-0.45491694 0 0)
(-0.45380537 0 0)
(-0.45249932 0 0)
(-0.45078995 0 0)
(-0.44886059 0 0)
(-0.44645918 0 0)
(-0.44374162 0 0)
(-0.44040078 0 0)
(-0.43650606 0 0)
(-0.43201795 0 0)
(-0.43215854 0 0)
(-0.43695736 0 0)
(-0.44110583 0 0)
(-0.44469041 0 0)
(-0.44770187 0 0)
(-0.45025212 0 0)
(-0.45249933 0 0)
(-0.45429007 0 0)
(-0.45589086 0 0)
(-0.45711398 0 0)
(-0.45815353 0 0)
(-0.45897037 0 0)
(-0.45951923 0 0)
(-0.45988398 0 0)
(-0.46006407 0 0)
(-0.46006407 0 0)
(-0.45988398 0 0)
(-0.45951923 0 0)
(-0.45897037 0 0)
(-0.45815353 0 0)
(-0.45711398 0 0)
(-0.45589086 0 0)
(-0.45429007 0 0)
(-0.45249933 0 0)
(-0.45025212 0 0)
(-0.44770187 0 0)
(-0.44469041 0 0)
(-0.44110583 0 0)
(-0.43695736 0 0)
(-0.43215854 0 0)
(-0.43202541 0 0)
(-0.43714297 0 0)
(-0.44156381 0 0)
(-0.44537711 0 0)
(-0.44868186 0 0)
(-0.45142647 0 0)
(-0.45380538 0 0)
(-0.45589087 0 0)
(-0.45755735 0 0)
(-0.45902208 0 0)
(-0.46015185 0 0)
(-0.46109678 0 0)
(-0.46175835 0 0)
(-0.46218646 0 0)
(-0.46240296 0 0)
(-0.46240296 0 0)
(-0.46218646 0 0)
(-0.46175835 0 0)
(-0.46109678 0 0)
(-0.46015185 0 0)
(-0.45902208 0 0)
(-0.45755735 0 0)
(-0.45589087 0 0)
(-0.45380538 0 0)
(-0.45142647 0 0)
(-0.44868186 0 0)
(-0.44537712 0 0)
(-0.44156381 0 0)
(-0.43714297 0 0)
(-0.43202541 0 0)
(-0.43167714 0 0)
(-0.43710986 0 0)
(-0.44180917 0 0)
(-0.44585774 0 0)
(-0.44935946 0 0)
(-0.45238853 0 0)
(-0.45491694 0 0)
(-0.45711399 0 0)
(-0.45902208 0 0)
(-0.46056559 0 0)
(-0.46186015 0 0)
(-0.46287572 0 0)
(-0.46365840 0 0)
(-0.46413663 0 0)
(-0.46438394 0 0)
(-0.46438394 0 0)
(-0.46413663 0 0)
(-0.46365840 0 0)
(-0.46287572 0 0)
(-0.46186015 0 0)
(-0.46056559 0 0)
(-0.45902208 0 0)
(-0.45711399 0 0)
(-0.45491694 0 0)
(-0.45238853 0 0)
(-0.44935946 0 0)
(-0.44585774 0 0)
(-0.44180917 0 0)
(-0.43710986 0 0)
(-0.43167714 0 0)
(-0.43117833 0 0)
(-0.43691044 0 0)
(-0.44188119 0 0)
(-0.44615979 0 0)
(-0.44985650 0 0)
(-0.45305804 0 0)
(-0.45583118 0 0)
(-0.45815353 0 0)
(-0.46015185 0 0)
(-0.46186016 0 0)
(-0.46327329 0 0)
(-0.46435773 0 0)
(-0.46522731 0 0)
(-0.46575563 0 0)
(-0.46602759 0 0)
(-0.46602759 0 0)
(-0.46575563 0 0)
(-0.46522731 0 0)
(-0.46435773 0 0)
(-0.46327329 0 0)
(-0.46186016 0 0)
(-0.46015185 0 0)
(-0.45815353 0 0)
(-0.45583118 0 0)
(-0.45305803 0 0)
(-0.44985650 0 0)
(-0.44615979 0 0)
(-0.44188119 0 0)
(-0.43691044 0 0)
(-0.43117833 0 0)
(-0.43060134 0 0)
(-0.43660403 0 0)
(-0.44182496 0 0)
(-0.44631584 0 0)
(-0.45019396 0 0)
(-0.45355023 0 0)
(-0.45645714 0 0)
(-0.45897037 0 0)
(-0.46109678 0 0)
(-0.46287572 0 0)
(-0.46435774 0 0)
(-0.46556640 0 0)
(-0.46645553 0 0)
(-0.46705669 0 0)
(-0.46734567 0 0)
(-0.46734567 0 0)
(-0.46705669 0 0)
(-0.46645553 0 0)
(-0.46556640 0 0)
(-0.46435773 0 0)
(-0.46287572 0 0)
(-0.46109678 0 0)
(-0.45897037 0 0)
(-0.45645714 0 0)
(-0.45355023 0 0)
(-0.45019396 0 0)
(-0.44631584 0 0)
(-0.44182496 0 0)
(-0.43660403 0 0)
(-0.43060134 0 0)
(-0.43002820 0 0)
(-0.43625814 0 0)
(-0.44169243 0 0)
(-0.44636428 0 0)
(-0.45039776 0 0)
(-0.45388793 0 0)
(-0.45690970 0 0)
(-0.45951923 0 0)
(-0.46175836 0 0)
(-0.46365841 0 0)
(-0.46522731 0 0)
(-0.46645553 0 0)
(-0.46738718 0 0)
(-0.46804824 0 0)
(-0.46834165 0 0)
(-0.46834165 0 0)
(-0.46804824 0 0)
(-0.46738718 0 0)
(-0.46645553 0 0)
(-0.46522731 0 0)
(-0.46365841 0 0)
(-0.46175836 0 0)
(-0.45951923 0 0)
(-0.45690970 0 0)
(-0.45388793 0 0)
(-0.45039776 0 0)
(-0.44636428 0 0)
(-0.44169243 0 0)
(-0.43625814 0 0)
(-0.43002820 0 0)
(-0.42955135 0 0)
(-0.43594907 0 0)
(-0.44154272 0 0)
(-0.44634955 0 0)
(-0.45049914 0 0)
(-0.45408994 0 0)
(-0.45719917 0 0)
(-0.45988398 0 0)
(-0.46218646 0 0)
(-0.46413663 0 0)
(-0.46575563 0 0)
(-0.46705669 0 0)
(-0.46804824 0 0)
(-0.46870534 0 0)
(-0.46901238 0 0)
(-0.46901238 0 0)
(-0.46870534 0 0)
(-0.46804824 0 0)
(-0.46705669 0 0)
(-0.46575563 0 0)
(-0.46413663 0 0)
(-0.46218646 0 0)
(-0.45988398 0 0)
(-0.45719917 0 0)
(-0.45408994 0 0)
(-0.45049914 0 0)
(-0.44634955 0 0)
(-0.44154272 0 0)
(-0.43594907 0 0)
(-0.42955135 0 0)
(-0.42927087 0 0)
(-0.43575962 0 0)
(-0.44144044 0 0)
(-0.44632095 0 0)
(-0.45053395 0 0)
(-0.45417982 0 0)
(-0.45733721 0 0)
(-0.46006408 0 0)
(-0.46240296 0 0)
(-0.46438394 0 0)
(-0.46602760 0 0)
(-0.46734567 0 0)
(-0.46834165 0 0)
(-0.46901238 0 0)
(-0.46930659 0 0)
(-0.46930659 0 0)
(-0.46901238 0 0)
(-0.46834165 0 0)
(-0.46734567 0 0)
(-0.46602760 0 0)
(-0.46438394 0 0)
(-0.46240296 0 0)
(-0.46006408 0 0)
(-0.45733721 0 0)
(-0.45417982 0 0)
(-0.45053394 0 0)
(-0.44632095 0 0)
(-0.44144044 0 0)
(-0.43575962 0 0)
(-0.42927087 0 0)
(-0.42927087 0 0)
(-0.43575962 0 0)
(-0.44144044 0 0)
(-0.44632095 0 0)
(-0.45053395 0 0)
(-0.45417983 0 0)
(-0.45733721 0 0)
(-0.46006408 0 0)
(-0.46240296 0 0)
(-0.46438394 0 0)
(-0.46602760 0 0)
(-0.46734567 0 0)
(-0.46834166 0 0)
(-0.46901238 0 0)
(-0.46930659 0 0)
(-0.46930659 0 0)
(-0.46901238 0 0)
(-0.46834166 0 0)
(-0.46734567 0 0)
(-0.46602760 0 0)
(-0.46438394 0 0)
(-0.46240296 0 0)
(-0.46006408 0 0)
(-0.45733721 0 0)